 Title Card Required
GAUSSIAN             25 MOL ORBITALS    255 PRIMITIVES       15 NUCLEI
  C    1    (CENTRE  1)   0.52020968  3.73810324  0.00000000  CHARGE =  6.0
  H    2    (CENTRE  2)  -1.27540235  4.75537508  0.00000000  CHARGE =  1.0
  H    3    (CENTRE  3)   1.61295330  4.28358017  1.67052546  CHARGE =  1.0
  H    4    (CENTRE  4)   1.61295330  4.28358017 -1.67052546  CHARGE =  1.0
  C    5    (CENTRE  5)   1.91227233 -0.67987436  0.00000000  CHARGE =  6.0
  C    6    (CENTRE  6)   1.12159182 -3.44340790  0.00000000  CHARGE =  6.0
  H    7    (CENTRE  7)  -0.92733809 -3.71045062  0.00000000  CHARGE =  1.0
  H    8    (CENTRE  8)   1.93056461 -4.36316224 -1.66535706  CHARGE =  1.0
  H    9    (CENTRE  9)   1.93056461 -4.36316224  1.66535706  CHARGE =  1.0
  H   10    (CENTRE 10)  -1.81977985  0.44507043  0.00000000  CHARGE =  1.0
  O   11    (CENTRE 11)   4.15287152 -0.04657816  0.00000000  CHARGE =  8.0
  N   12    (CENTRE 12)   0.00000000  1.03937594  0.00000000  CHARGE =  7.0
  O   13    (CENTRE 13)  -5.54406542 -0.56507484  0.00000000  CHARGE =  8.0
  H   14    (CENTRE 14)  -6.62970364 -0.70108213  1.45980399  CHARGE =  1.0
  H   15    (CENTRE 15)  -6.62970364 -0.70108213 -1.45980399  CHARGE =  1.0
CENTRE ASSIGNMENTS    1  1  1  1  1  1  1  1  1  1  1  1  1  1  1  1  1  1  1  1
CENTRE ASSIGNMENTS    1  1  1  1  1  1  1  1  1  1  1  1  2  2  2  2  2  2  2  3
CENTRE ASSIGNMENTS    3  3  3  3  3  3  4  4  4  4  4  4  4  5  5  5  5  5  5  5
CENTRE ASSIGNMENTS    5  5  5  5  5  5  5  5  5  5  5  5  5  5  5  5  5  5  5  5
CENTRE ASSIGNMENTS    5  5  5  5  5  6  6  6  6  6  6  6  6  6  6  6  6  6  6  6
CENTRE ASSIGNMENTS    6  6  6  6  6  6  6  6  6  6  6  6  6  6  6  6  6  7  7  7
CENTRE ASSIGNMENTS    7  7  7  7  8  8  8  8  8  8  8  9  9  9  9  9  9  9 10 10
CENTRE ASSIGNMENTS   10 10 10 10 10 11 11 11 11 11 11 11 11 11 11 11 11 11 11 11
CENTRE ASSIGNMENTS   11 11 11 11 11 11 11 11 11 11 11 11 11 11 11 11 11 12 12 12
CENTRE ASSIGNMENTS   12 12 12 12 12 12 12 12 12 12 12 12 12 12 12 12 12 12 12 12
CENTRE ASSIGNMENTS   12 12 12 12 12 12 12 12 12 13 13 13 13 13 13 13 13 13 13 13
CENTRE ASSIGNMENTS   13 13 13 13 13 13 13 13 13 13 13 13 13 13 13 13 13 13 13 13
CENTRE ASSIGNMENTS   13 14 14 14 14 14 14 14 15 15 15 15 15 15 15
TYPE ASSIGNMENTS      1  1  1  1  1  1  1  1  1  2  2  2  3  3  3  4  4  4  1  2
TYPE ASSIGNMENTS      3  4  1  2  3  4  5  6  7  8  9 10  1  1  1  1  2  3  4  1
TYPE ASSIGNMENTS      1  1  1  2  3  4  1  1  1  1  2  3  4  1  1  1  1  1  1  1
TYPE ASSIGNMENTS      1  1  2  2  2  3  3  3  4  4  4  1  2  3  4  1  2  3  4  5
TYPE ASSIGNMENTS      6  7  8  9 10  1  1  1  1  1  1  1  1  1  2  2  2  3  3  3
TYPE ASSIGNMENTS      4  4  4  1  2  3  4  1  2  3  4  5  6  7  8  9 10  1  1  1
TYPE ASSIGNMENTS      1  2  3  4  1  1  1  1  2  3  4  1  1  1  1  2  3  4  1  1
TYPE ASSIGNMENTS      1  1  2  3  4  1  1  1  1  1  1  1  1  1  2  2  2  3  3  3
TYPE ASSIGNMENTS      4  4  4  1  2  3  4  1  2  3  4  5  6  7  8  9 10  1  1  1
TYPE ASSIGNMENTS      1  1  1  1  1  1  2  2  2  3  3  3  4  4  4  1  2  3  4  1
TYPE ASSIGNMENTS      2  3  4  5  6  7  8  9 10  1  1  1  1  1  1  1  1  1  2  2
TYPE ASSIGNMENTS      2  3  3  3  4  4  4  1  2  3  4  1  2  3  4  5  6  7  8  9
TYPE ASSIGNMENTS     10  1  1  1  1  2  3  4  1  1  1  1  2  3  4
EXPONENTS  0.3047525D+04 0.4573695D+03 0.1039487D+03 0.2921016D+02 0.9286663D+01
EXPONENTS  0.3163927D+01 0.7868272D+01 0.1881289D+01 0.5442493D+00 0.7868272D+01
EXPONENTS  0.1881289D+01 0.5442493D+00 0.7868272D+01 0.1881289D+01 0.5442493D+00
EXPONENTS  0.7868272D+01 0.1881289D+01 0.5442493D+00 0.1687145D+00 0.1687145D+00
EXPONENTS  0.1687145D+00 0.1687145D+00 0.4380000D-01 0.4380000D-01 0.4380000D-01
EXPONENTS  0.4380000D-01 0.8000000D+00 0.8000000D+00 0.8000000D+00 0.8000000D+00
EXPONENTS  0.8000000D+00 0.8000000D+00 0.1873114D+02 0.2825394D+01 0.6401217D+00
EXPONENTS  0.1612778D+00 0.1100000D+01 0.1100000D+01 0.1100000D+01 0.1873114D+02
EXPONENTS  0.2825394D+01 0.6401217D+00 0.1612778D+00 0.1100000D+01 0.1100000D+01
EXPONENTS  0.1100000D+01 0.1873114D+02 0.2825394D+01 0.6401217D+00 0.1612778D+00
EXPONENTS  0.1100000D+01 0.1100000D+01 0.1100000D+01 0.3047525D+04 0.4573695D+03
EXPONENTS  0.1039487D+03 0.2921016D+02 0.9286663D+01 0.3163927D+01 0.7868272D+01
EXPONENTS  0.1881289D+01 0.5442493D+00 0.7868272D+01 0.1881289D+01 0.5442493D+00
EXPONENTS  0.7868272D+01 0.1881289D+01 0.5442493D+00 0.7868272D+01 0.1881289D+01
EXPONENTS  0.5442493D+00 0.1687145D+00 0.1687145D+00 0.1687145D+00 0.1687145D+00
EXPONENTS  0.4380000D-01 0.4380000D-01 0.4380000D-01 0.4380000D-01 0.8000000D+00
EXPONENTS  0.8000000D+00 0.8000000D+00 0.8000000D+00 0.8000000D+00 0.8000000D+00
EXPONENTS  0.3047525D+04 0.4573695D+03 0.1039487D+03 0.2921016D+02 0.9286663D+01
EXPONENTS  0.3163927D+01 0.7868272D+01 0.1881289D+01 0.5442493D+00 0.7868272D+01
EXPONENTS  0.1881289D+01 0.5442493D+00 0.7868272D+01 0.1881289D+01 0.5442493D+00
EXPONENTS  0.7868272D+01 0.1881289D+01 0.5442493D+00 0.1687145D+00 0.1687145D+00
EXPONENTS  0.1687145D+00 0.1687145D+00 0.4380000D-01 0.4380000D-01 0.4380000D-01
EXPONENTS  0.4380000D-01 0.8000000D+00 0.8000000D+00 0.8000000D+00 0.8000000D+00
EXPONENTS  0.8000000D+00 0.8000000D+00 0.1873114D+02 0.2825394D+01 0.6401217D+00
EXPONENTS  0.1612778D+00 0.1100000D+01 0.1100000D+01 0.1100000D+01 0.1873114D+02
EXPONENTS  0.2825394D+01 0.6401217D+00 0.1612778D+00 0.1100000D+01 0.1100000D+01
EXPONENTS  0.1100000D+01 0.1873114D+02 0.2825394D+01 0.6401217D+00 0.1612778D+00
EXPONENTS  0.1100000D+01 0.1100000D+01 0.1100000D+01 0.1873114D+02 0.2825394D+01
EXPONENTS  0.6401217D+00 0.1612778D+00 0.1100000D+01 0.1100000D+01 0.1100000D+01
EXPONENTS  0.5484672D+04 0.8252349D+03 0.1880470D+03 0.5296450D+02 0.1689757D+02
EXPONENTS  0.5799635D+01 0.1553962D+02 0.3599934D+01 0.1013762D+01 0.1553962D+02
EXPONENTS  0.3599934D+01 0.1013762D+01 0.1553962D+02 0.3599934D+01 0.1013762D+01
EXPONENTS  0.1553962D+02 0.3599934D+01 0.1013762D+01 0.2700058D+00 0.2700058D+00
EXPONENTS  0.2700058D+00 0.2700058D+00 0.8450000D-01 0.8450000D-01 0.8450000D-01
EXPONENTS  0.8450000D-01 0.8000000D+00 0.8000000D+00 0.8000000D+00 0.8000000D+00
EXPONENTS  0.8000000D+00 0.8000000D+00 0.4173511D+04 0.6274579D+03 0.1429021D+03
EXPONENTS  0.4023433D+02 0.1282021D+02 0.4390437D+01 0.1162636D+02 0.2716280D+01
EXPONENTS  0.7722184D+00 0.1162636D+02 0.2716280D+01 0.7722184D+00 0.1162636D+02
EXPONENTS  0.2716280D+01 0.7722184D+00 0.1162636D+02 0.2716280D+01 0.7722184D+00
EXPONENTS  0.2120315D+00 0.2120315D+00 0.2120315D+00 0.2120315D+00 0.6390000D-01
EXPONENTS  0.6390000D-01 0.6390000D-01 0.6390000D-01 0.8000000D+00 0.8000000D+00
EXPONENTS  0.8000000D+00 0.8000000D+00 0.8000000D+00 0.8000000D+00 0.5484672D+04
EXPONENTS  0.8252349D+03 0.1880470D+03 0.5296450D+02 0.1689757D+02 0.5799635D+01
EXPONENTS  0.1553962D+02 0.3599934D+01 0.1013762D+01 0.1553962D+02 0.3599934D+01
EXPONENTS  0.1013762D+01 0.1553962D+02 0.3599934D+01 0.1013762D+01 0.1553962D+02
EXPONENTS  0.3599934D+01 0.1013762D+01 0.2700058D+00 0.2700058D+00 0.2700058D+00
EXPONENTS  0.2700058D+00 0.8450000D-01 0.8450000D-01 0.8450000D-01 0.8450000D-01
EXPONENTS  0.8000000D+00 0.8000000D+00 0.8000000D+00 0.8000000D+00 0.8000000D+00
EXPONENTS  0.8000000D+00 0.1873114D+02 0.2825394D+01 0.6401217D+00 0.1612778D+00
EXPONENTS  0.1100000D+01 0.1100000D+01 0.1100000D+01 0.1873114D+02 0.2825394D+01
EXPONENTS  0.6401217D+00 0.1612778D+00 0.1100000D+01 0.1100000D+01 0.1100000D+01
MO    1     MO 0.0        OCC NO =    2.0000000  ORB. ENERGY =  -19.204766
  0.11554853D-06  0.21316448D-06  0.34411356D-06  0.44793361D-06  0.38222257D-06
  0.13197227D-06 -0.35495330D-06 -0.16359765D-06  0.45874490D-06  0.22490747D-05
  0.17244478D-05  0.86062032D-06 -0.27622148D-04 -0.21178911D-04 -0.10569761D-04
  0.00000000D+00  0.00000000D+00  0.00000000D+00  0.40661286D-04  0.34435190D-04
 -0.35817630D-04  0.00000000D+00  0.93512089D-05  0.78373099D-06 -0.25865909D-05
  0.00000000D+00 -0.35999234D-04  0.45953095D-04 -0.15744010D-04 -0.64652207D-04
  0.00000000D+00  0.00000000D+00  0.39508960D-05  0.67014673D-05  0.76293837D-05
  0.16438224D-04  0.19114840D-04  0.90141651D-05  0.00000000D+00 -0.73288686D-05
 -0.12431148D-04 -0.14152423D-04  0.73449854D-04 -0.24594763D-04 -0.24065832D-04
 -0.72346775D-05 -0.73288686D-05 -0.12431148D-04 -0.14152423D-04  0.73449854D-04
 -0.24594763D-04 -0.24065832D-04  0.72346775D-05  0.57641908D-05  0.10633807D-04
  0.17166261D-04  0.22345371D-04  0.19067346D-04  0.65834962D-05 -0.16628182D-04
 -0.76639137D-05  0.21490414D-04  0.91546299D-05  0.70191895D-05  0.35030675D-05
 -0.45422911D-04 -0.34827407D-04 -0.17381317D-04  0.00000000D+00  0.00000000D+00
  0.00000000D+00 -0.28227343D-04  0.44382532D-04  0.18797271D-03  0.00000000D+00
 -0.15247286D-03  0.15917264D-04  0.43332326D-04  0.00000000D+00  0.11036341D-04
  0.47992826D-04  0.35791759D-05 -0.62834069D-04  0.00000000D+00  0.00000000D+00
 -0.39975034D-05 -0.73746133D-05 -0.11904912D-04 -0.15496659D-04 -0.13223327D-04
 -0.45656970D-05  0.15455758D-04  0.71235446D-05 -0.19975162D-04  0.79677377D-05
  0.61091559D-05  0.30488969D-05  0.22408412D-04  0.17181349D-04  0.85746972D-05
  0.00000000D+00  0.00000000D+00  0.00000000D+00  0.13336766D-03  0.39863104D-04
  0.62544587D-04  0.00000000D+00  0.19316643D-03  0.20713089D-05  0.16062578D-04
  0.00000000D+00 -0.18728293D-04  0.26873193D-04 -0.15717181D-04  0.27643513D-04
  0.00000000D+00  0.00000000D+00 -0.30832856D-06 -0.52298359D-06 -0.59539833D-06
  0.26553159D-04 -0.36431725D-04  0.47614319D-04  0.00000000D+00 -0.77756595D-06
 -0.13188990D-05 -0.15015199D-05 -0.19230955D-04 -0.99894380D-06 -0.16161076D-04
 -0.30195863D-05 -0.77756595D-06 -0.13188990D-05 -0.15015199D-05 -0.19230955D-04
 -0.99894380D-06 -0.16161076D-04  0.30195863D-05  0.49401299D-05  0.83793954D-05
  0.95396455D-05 -0.42914573D-03  0.12872248D-03  0.18592637D-04  0.00000000D+00
  0.13778222D-04  0.25359283D-04  0.41036108D-04  0.53943112D-04  0.46266694D-04
  0.15819368D-04 -0.55025627D-04 -0.24552328D-04  0.72503352D-04 -0.22345341D-05
 -0.17215881D-05 -0.75586990D-06 -0.83805302D-05 -0.64567467D-05 -0.28348596D-05
  0.00000000D+00  0.00000000D+00  0.00000000D+00 -0.18219527D-03  0.34864591D-04
 -0.17832811D-04  0.00000000D+00  0.17425832D-03 -0.47705882D-04  0.36485079D-05
  0.00000000D+00  0.46795280D-04  0.71168748D-04  0.36614288D-04  0.30754206D-04
  0.00000000D+00  0.00000000D+00 -0.32370875D-04 -0.59613671D-04 -0.96319451D-04
 -0.12606146D-03 -0.10798293D-03 -0.37147380D-04  0.89918982D-04  0.44451525D-04
 -0.11726027D-03  0.23971554D-03  0.18662238D-03  0.88614906D-04  0.10795045D-03
  0.84041152D-04  0.39905712D-04  0.00000000D+00  0.00000000D+00  0.00000000D+00
  0.24165821D-03 -0.24944118D-03 -0.77159290D-04  0.00000000D+00 -0.54890531D-04
 -0.14149789D-03 -0.50269181D-04  0.00000000D+00 -0.10088505D-03 -0.13045005D-03
 -0.15182366D-03  0.62314672D-04  0.00000000D+00  0.00000000D+00  0.82560820D+00
  0.15195598D+01  0.24589346D+01  0.32323384D+01  0.27723578D+01  0.94791623D+00
 -0.15782867D-01 -0.70422845D-02  0.20795961D-01 -0.39398964D-02 -0.30354778D-02
 -0.13327382D-02 -0.50358756D-03 -0.38798707D-03 -0.17034722D-03  0.00000000D+00
  0.00000000D+00  0.00000000D+00  0.36481322D-02  0.32022407D-03  0.53658040D-04
  0.00000000D+00 -0.33044501D-03 -0.10820898D-03 -0.19714426D-04  0.00000000D+00
 -0.93404972D-02 -0.93554319D-02 -0.94142147D-02  0.25924848D-04  0.00000000D+00
  0.00000000D+00  0.87404085D-04  0.14825387D-03  0.16878179D-03 -0.15801398D-03
 -0.79702915D-04 -0.14925477D-04  0.36129181D-04  0.87404085D-04  0.14825387D-03
  0.16878179D-03 -0.15801398D-03 -0.79702915D-04 -0.14925477D-04 -0.36129181D-04
MO    2     MO 0.0        OCC NO =    2.0000000  ORB. ENERGY =  -19.102207
  0.54497564D-05  0.10053736D-04  0.16229848D-04  0.21126440D-04  0.18027229D-04
  0.62243691D-05 -0.14450338D-04 -0.66601475D-05  0.18675749D-04  0.14042584D-04
  0.10766962D-04  0.53734689D-05  0.18111225D-05  0.13886539D-05  0.69303560D-06
  0.00000000D+00  0.00000000D+00  0.00000000D+00 -0.80657260D-04  0.25092191D-04
  0.11751649D-04  0.00000000D+00 -0.90326935D-04 -0.92748951D-05  0.98859600D-05
  0.00000000D+00  0.26460936D-04  0.22713201D-05  0.21418411D-04 -0.74110987D-04
  0.00000000D+00  0.00000000D+00  0.12776248D-05  0.21670934D-05  0.24671593D-05
  0.26580936D-04 -0.12399832D-04 -0.36797424D-05  0.00000000D+00  0.22467319D-05
  0.38108826D-05  0.43385551D-05  0.14073447D-04  0.29055336D-04 -0.46853193D-04
 -0.19773632D-04  0.22467319D-05  0.38108826D-05  0.43385551D-05  0.14073447D-04
  0.29055336D-04 -0.46853193D-04  0.19773632D-04 -0.71686884D-05 -0.13224830D-04
 -0.21348977D-04 -0.27790024D-04 -0.23713278D-04 -0.81876250D-05 -0.16297460D-03
 -0.75114842D-04  0.21062986D-03  0.33785057D-03  0.25904238D-03  0.12928031D-03
  0.15269554D-03  0.11707726D-03  0.58429756D-04  0.00000000D+00  0.00000000D+00
  0.00000000D+00 -0.33557922D-05 -0.17752219D-03 -0.49404490D-04  0.00000000D+00
 -0.85772807D-04  0.89290066D-04  0.62186354D-04  0.00000000D+00 -0.46892565D-03
 -0.13832796D-03 -0.18856834D-03 -0.19428017D-03  0.00000000D+00  0.00000000D+00
  0.98920207D-06  0.18248847D-05  0.29459297D-05  0.38347251D-05  0.32721779D-05
  0.11298044D-05 -0.33952161D-04 -0.15648520D-04  0.43880083D-04 -0.33036041D-04
 -0.25329941D-04 -0.12641416D-04 -0.18445682D-04 -0.14142979D-04 -0.70583379D-05
  0.00000000D+00  0.00000000D+00  0.00000000D+00 -0.67718635D-04  0.35783484D-04
 -0.15504308D-04  0.00000000D+00  0.25615087D-03 -0.12054598D-04  0.27979870D-04
  0.00000000D+00 -0.80630560D-04 -0.17425511D-04 -0.20599174D-04 -0.98865162D-04
  0.00000000D+00  0.00000000D+00  0.10996690D-04  0.18652467D-04  0.21235174D-04
  0.16711375D-04  0.31434535D-04 -0.48568857D-04  0.00000000D+00  0.28704742D-06
  0.48688676D-06  0.55430337D-06  0.20802676D-04  0.21829285D-04  0.65773829D-04
  0.34516563D-05  0.28704742D-06  0.48688676D-06  0.55430337D-06  0.20802676D-04
  0.21829285D-04  0.65773829D-04 -0.34516563D-05  0.20187819D-04  0.34242362D-04
  0.38983719D-04 -0.59679574D-04  0.28333841D-04  0.59616400D-04  0.00000000D+00
  0.82554290D+00  0.15194396D+01  0.24587401D+01  0.32320827D+01  0.27721386D+01
  0.94784126D+00 -0.15566899D-01 -0.69459198D-02  0.20511394D-01 -0.37966990D-02
 -0.29251519D-02 -0.12842992D-02 -0.99725532D-03 -0.76833146D-03 -0.33733890D-03
  0.00000000D+00  0.00000000D+00  0.00000000D+00  0.42109033D-02  0.81323396D-04
  0.25852124D-04  0.00000000D+00 -0.77803953D-03 -0.64078441D-07 -0.13735977D-04
  0.00000000D+00 -0.95423590D-02 -0.96070585D-02 -0.96334703D-02  0.55583736D-04
  0.00000000D+00  0.00000000D+00  0.40675385D-05  0.74907119D-05  0.12102950D-04
  0.15840159D-04  0.13568516D-04  0.46677268D-05 -0.38215943D-04 -0.18892083D-04
  0.49836105D-04  0.25035496D-04  0.19490533D-04  0.92547946D-05 -0.24743152D-04
 -0.19262939D-04 -0.91467249D-05  0.00000000D+00  0.00000000D+00  0.00000000D+00
 -0.61753741D-04 -0.19015044D-04  0.67114866D-04  0.00000000D+00  0.19225191D-03
  0.86223988D-05 -0.10341316D-04  0.00000000D+00 -0.16706694D-03  0.96504802D-04
  0.18513339D-04 -0.27805028D-05  0.00000000D+00  0.00000000D+00  0.60972426D-05
  0.11222181D-04  0.18159607D-04  0.23871312D-04  0.20474286D-04  0.70005061D-05
 -0.14883720D-04 -0.66410868D-05  0.19611218D-04 -0.15973575D-04 -0.12306778D-04
 -0.54033385D-05  0.65407231D-05  0.50392745D-05  0.22125130D-05  0.00000000D+00
  0.00000000D+00  0.00000000D+00 -0.40595436D-04  0.10065462D-04 -0.22408151D-05
  0.00000000D+00  0.27984076D-04  0.84505513D-05  0.40038681D-05  0.00000000D+00
  0.22872547D-04  0.15003844D-04  0.92868794D-05  0.76566405D-05  0.00000000D+00
  0.00000000D+00  0.14975341D-05  0.25401013D-05  0.28918156D-05  0.61897146D-05
 -0.18731469D-05 -0.11172546D-05 -0.12358997D-04  0.14975341D-05  0.25401013D-05
  0.28918156D-05  0.61897146D-05 -0.18731469D-05 -0.11172546D-05  0.12358997D-04
MO    3     MO 0.0        OCC NO =    2.0000000  ORB. ENERGY =  -14.350373
 -0.37399131D-05 -0.68994095D-05 -0.11137786D-04 -0.14498088D-04 -0.12371245D-04
 -0.42714936D-05 -0.29037993D-05 -0.13383584D-05  0.37528968D-05 -0.68911316D-04
 -0.52836826D-04 -0.26369279D-04 -0.37852479D-03 -0.29022880D-03 -0.14484451D-03
  0.00000000D+00  0.00000000D+00  0.00000000D+00  0.41145373D-04  0.94576134D-05
 -0.22860286D-04  0.00000000D+00  0.50716649D-04  0.17973263D-05 -0.63831049D-05
  0.00000000D+00 -0.91611248D-05  0.24901757D-03 -0.99974943D-05  0.78020526D-04
  0.00000000D+00  0.00000000D+00 -0.69435645D-05 -0.11777600D-04 -0.13408381D-04
  0.93337806D-05 -0.89784929D-05  0.10410490D-03  0.00000000D+00 -0.79344104D-05
 -0.13458262D-04 -0.15321755D-04  0.80808626D-05  0.21830162D-04  0.80777902D-04
  0.27141344D-04 -0.79344104D-05 -0.13458262D-04 -0.15321755D-04  0.80808626D-05
  0.21830162D-04  0.80777902D-04 -0.27141344D-04  0.11698705D-04  0.21581826D-04
  0.34839759D-04  0.45351015D-04  0.38698103D-04  0.13361525D-04 -0.53123367D-04
 -0.24484511D-04  0.68657125D-04 -0.26733479D-03 -0.20497536D-03 -0.10229707D-03
  0.29687034D-03  0.22762135D-03  0.11359901D-03  0.00000000D+00  0.00000000D+00
  0.00000000D+00  0.63221994D-04  0.15086465D-04  0.81560172D-04  0.00000000D+00
  0.14724570D-03 -0.10022521D-04 -0.19252093D-04  0.00000000D+00  0.10562904D-03
  0.87873748D-04 -0.71884417D-04 -0.11744466D-03  0.00000000D+00  0.00000000D+00
 -0.53366226D-06 -0.98450266D-06 -0.15892926D-05 -0.20687867D-05 -0.17652994D-05
 -0.60951547D-06 -0.20817675D-04 -0.95948473D-05  0.26904953D-04  0.35808520D-05
  0.27455702D-05  0.13702320D-05 -0.21378073D-04 -0.16391351D-04 -0.81804328D-05
  0.00000000D+00  0.00000000D+00  0.00000000D+00  0.37527523D-04  0.26417085D-04
  0.10902681D-04  0.00000000D+00 -0.12450514D-03 -0.24337797D-05 -0.11781688D-04
  0.00000000D+00 -0.14700065D-04 -0.84716278D-04 -0.44146493D-05  0.73805293D-04
  0.00000000D+00  0.00000000D+00  0.17137046D-05  0.29067673D-05  0.33092519D-05
  0.25471750D-04 -0.19886796D-05  0.11008041D-04  0.00000000D+00 -0.24053016D-05
 -0.40798467D-05 -0.46447613D-05  0.99929582D-06 -0.13738402D-04  0.77096482D-05
  0.47601233D-07 -0.24053016D-05 -0.40798467D-05 -0.46447613D-05  0.99929582D-06
 -0.13738402D-04  0.77096482D-05 -0.47601233D-07  0.60701179D-04  0.10296069D-03
  0.11721711D-03 -0.16781598D-03  0.17021920D-04  0.15731029D-08  0.00000000D+00
  0.43789441D-05  0.80595948D-05  0.13041946D-04  0.17144003D-04  0.14704311D-04
  0.50276538D-05 -0.28601595D-04 -0.12761976D-04  0.37686286D-04  0.53653301D-04
  0.41336976D-04  0.18149159D-04  0.23331610D-04  0.17975748D-04  0.78923215D-05
  0.00000000D+00  0.00000000D+00  0.00000000D+00 -0.68399831D-04  0.58435891D-04
 -0.31334639D-04  0.00000000D+00  0.79568744D-05 -0.37256229D-05  0.77243790D-05
  0.00000000D+00 -0.97513857D-04  0.30484175D-04  0.17444122D-04  0.86014594D-04
  0.00000000D+00  0.00000000D+00  0.67396779D+00  0.12411680D+01  0.20053893D+01
  0.26246235D+01  0.22482253D+01  0.77341554D+00 -0.17972242D-01 -0.88845928D-02
  0.23436987D-01  0.10966084D-03  0.85372717D-04  0.40537986D-04  0.13913023D-03
  0.10831510D-03  0.51431843D-04  0.00000000D+00  0.00000000D+00  0.00000000D+00
  0.98557455D-03 -0.12690516D-03 -0.52870557D-04  0.00000000D+00 -0.19301672D-03
 -0.20773289D-04 -0.56570530D-05  0.00000000D+00 -0.94555577D-02 -0.95783728D-02
 -0.94205850D-02  0.53718055D-04  0.00000000D+00  0.00000000D+00 -0.39374051D-05
 -0.72469273D-05 -0.11726896D-04 -0.15415333D-04 -0.13221642D-04 -0.45207039D-05
  0.22481187D-04  0.10031062D-04 -0.29621860D-04 -0.17317936D-04 -0.13342536D-04
 -0.58580919D-05 -0.71161260D-05 -0.54825914D-05 -0.24071530D-05  0.00000000D+00
  0.00000000D+00  0.00000000D+00  0.33774792D-04  0.20088161D-04  0.66940881D-05
  0.00000000D+00  0.76601719D-06  0.20900779D-05  0.47454758D-07  0.00000000D+00
  0.72754949D-05 -0.23833788D-04 -0.13660786D-04  0.17283614D-04  0.00000000D+00
  0.00000000D+00 -0.16545860D-05 -0.28064910D-05 -0.31950908D-05  0.76745716D-06
 -0.11322199D-04 -0.37974565D-05 -0.32672106D-05 -0.16545860D-05 -0.28064910D-05
 -0.31950908D-05  0.76745716D-06 -0.11322199D-04 -0.37974565D-05  0.32672106D-05
MO    4     MO 0.0        OCC NO =    2.0000000  ORB. ENERGY =  -10.275396
 -0.28781439D-04 -0.53096134D-04 -0.85713624D-04 -0.11157367D-03 -0.95206015D-04
 -0.32872349D-04  0.66145866D-04  0.30486569D-04 -0.85487523D-04  0.29155851D-04
  0.22354857D-04  0.11156640D-04 -0.84269135D-04 -0.64612228D-04 -0.32246030D-04
  0.00000000D+00  0.00000000D+00  0.00000000D+00  0.15073543D-03  0.21834761D-04
  0.27225949D-05  0.00000000D+00  0.38588365D-03 -0.10615235D-04 -0.45572446D-04
  0.00000000D+00 -0.10819587D-04  0.93043518D-04 -0.29680086D-04 -0.85583224D-04
  0.00000000D+00  0.00000000D+00 -0.17189178D-04 -0.29156100D-04 -0.33193189D-04
  0.80526240D-04 -0.25273818D-04 -0.37194029D-04  0.00000000D+00  0.38430660D-06
  0.65185673D-06  0.74211584D-06 -0.90619837D-04 -0.46460706D-04  0.94404689D-04
  0.37388591D-04  0.38430660D-06  0.65185673D-06  0.74211584D-06 -0.90619837D-04
 -0.46460706D-04  0.94404689D-04 -0.37388591D-04  0.53267712D+00  0.98268528D+00
  0.15863587D+01  0.20649677D+01  0.17620407D+01  0.60839031D+00 -0.19814690D-01
 -0.91325725D-02  0.25608686D-01  0.23099956D-03  0.17711581D-03  0.88393204D-04
  0.79805253D-03  0.61189606D-03  0.30537902D-03  0.00000000D+00  0.00000000D+00
  0.00000000D+00 -0.31223165D-02  0.48256584D-03  0.19937588D-03  0.00000000D+00
 -0.10180267D-02  0.14611362D-03 -0.24427679D-04  0.00000000D+00 -0.88083953D-02
 -0.95575801D-02 -0.10060864D-01  0.81050334D-04  0.00000000D+00  0.00000000D+00
  0.61042941D-03  0.11261231D-02  0.18179118D-02  0.23663810D-02  0.20192372D-02
  0.69719408D-03  0.20120746D-04  0.92736336D-05 -0.26004237D-04 -0.50761233D-05
 -0.38920494D-05 -0.19424054D-05 -0.59295296D-04 -0.45463872D-04 -0.22689658D-04
  0.00000000D+00  0.00000000D+00  0.00000000D+00  0.77499601D-03 -0.82606884D-04
  0.24026832D-03  0.00000000D+00  0.27564132D-03 -0.31263265D-04  0.18675454D-04
  0.00000000D+00 -0.11772044D-03 -0.43313741D-03 -0.91020311D-04 -0.28873571D-03
  0.00000000D+00  0.00000000D+00 -0.22836993D-04 -0.38735863D-04 -0.44099411D-04
 -0.26542082D-03 -0.39121847D-04 -0.12933818D-04  0.00000000D+00 -0.25950773D-04
 -0.44017423D-04 -0.50112280D-04 -0.69783612D-05  0.44667166D-04  0.30132840D-04
  0.43266678D-04 -0.25950773D-04 -0.44017423D-04 -0.50112280D-04 -0.69783612D-05
  0.44667166D-04  0.30132840D-04 -0.43266678D-04 -0.77232312D-05 -0.13100062D-04
 -0.14913957D-04 -0.34041190D-03  0.59231197D-04 -0.40259413D-04  0.00000000D+00
 -0.51392548D-04 -0.94589722D-04 -0.15306403D-03 -0.20120695D-03 -0.17257403D-03
 -0.59005991D-04 -0.35567728D-03 -0.15870251D-03  0.46865063D-03 -0.30979044D-04
 -0.23867683D-04 -0.10479198D-04  0.89678066D-04  0.69092116D-04  0.30335160D-04
  0.00000000D+00  0.00000000D+00  0.00000000D+00 -0.85417756D-03  0.46965285D-03
  0.74832023D-04  0.00000000D+00  0.37607485D-03 -0.18502812D-03 -0.48125119D-04
  0.00000000D+00 -0.11244229D-03  0.41783631D-03  0.56253947D-03 -0.30217332D-03
  0.00000000D+00  0.00000000D+00 -0.83623574D-04 -0.15399980D-03 -0.24882172D-03
 -0.32565414D-03 -0.27895196D-03 -0.95962705D-04 -0.34915218D-04 -0.17260368D-04
  0.45531743D-04 -0.15234975D-03 -0.11860672D-03 -0.56318664D-04  0.31472353D-03
  0.24501729D-03  0.11634288D-03  0.00000000D+00  0.00000000D+00  0.00000000D+00
  0.38068379D-03 -0.16550033D-03 -0.16570534D-03  0.00000000D+00  0.85218936D-03
  0.78252650D-04 -0.27074559D-03  0.00000000D+00 -0.32692561D-03 -0.25175585D-03
  0.10099645D-03  0.65819057D-03  0.00000000D+00  0.00000000D+00 -0.12469946D-04
 -0.22951357D-04 -0.37139628D-04 -0.48821080D-04 -0.41873557D-04 -0.14317280D-04
  0.37010560D-04  0.16514040D-04 -0.48766180D-04 -0.33789024D-04 -0.26032621D-04
 -0.11429723D-04 -0.34272738D-04 -0.26405297D-04 -0.11593348D-04  0.00000000D+00
  0.00000000D+00  0.00000000D+00  0.70262682D-04  0.28493137D-04  0.12921328D-04
  0.00000000D+00 -0.10179471D-04 -0.97892034D-05  0.11014809D-04  0.00000000D+00
 -0.46814750D-04 -0.39379356D-04 -0.69529397D-04  0.60107201D-04  0.00000000D+00
  0.00000000D+00  0.28537058D-05  0.48404252D-05  0.55106531D-05 -0.45351759D-05
  0.67234531D-05 -0.19186437D-04 -0.12111435D-04  0.28537058D-05  0.48404252D-05
  0.55106531D-05 -0.45351759D-05  0.67234531D-05 -0.19186437D-04  0.12111435D-04
MO    5     MO 0.0        OCC NO =    2.0000000  ORB. ENERGY =  -10.210492
  0.53262229D+00  0.98258413D+00  0.15861954D+01  0.20647552D+01  0.17618593D+01
  0.60832769D+00 -0.19960098D-01 -0.91995907D-02  0.25796613D-01 -0.28254511D-03
 -0.21663767D-03 -0.10811738D-03 -0.94843781D-03 -0.72720196D-03 -0.36292474D-03
  0.00000000D+00  0.00000000D+00  0.00000000D+00 -0.34506021D-02  0.39913020D-04
  0.28014119D-03  0.00000000D+00 -0.56751742D-03  0.12925935D-04  0.73647116D-04
  0.00000000D+00 -0.96916125D-02 -0.98041969D-02 -0.97430129D-02 -0.80828946D-04
  0.00000000D+00  0.00000000D+00 -0.22123402D-04 -0.37525478D-04 -0.42721430D-04
  0.38247054D-03 -0.30622835D-03  0.10990176D-03  0.00000000D+00 -0.16594482D-04
 -0.28147383D-04 -0.32044800D-04  0.44920149D-03  0.12930369D-03 -0.37863938D-04
  0.20368363D-03 -0.16594482D-04 -0.28147383D-04 -0.32044800D-04  0.44920149D-03
  0.12930369D-03 -0.37863938D-04 -0.20368363D-03  0.10077081D-04  0.18590246D-04
  0.30010422D-04  0.39064652D-04  0.33333939D-04  0.11509408D-04  0.46175348D-04
  0.21282176D-04 -0.59677442D-04 -0.10056798D-03 -0.77109148D-04 -0.38482869D-04
 -0.18438217D-03 -0.14137255D-03 -0.70554812D-04  0.00000000D+00  0.00000000D+00
  0.00000000D+00 -0.13252131D-03  0.16357132D-03  0.30851995D-03  0.00000000D+00
  0.17126652D-03 -0.25591172D-04 -0.18670618D-04  0.00000000D+00  0.64394393D-04
 -0.11910302D-04 -0.71015008D-04 -0.27842588D-04  0.00000000D+00  0.00000000D+00
 -0.73016667D-04 -0.13470149D-03 -0.21744998D-03 -0.28305526D-03 -0.24153157D-03
 -0.83395045D-04  0.12086248D-03  0.55705405D-04 -0.15620377D-03  0.15750704D-04
  0.12076641D-04  0.60270903D-05  0.63478278D-05  0.48671117D-05  0.24290299D-05
  0.00000000D+00  0.00000000D+00  0.00000000D+00  0.49313596D-03  0.56617205D-04
  0.21427916D-03  0.00000000D+00  0.38220401D-04 -0.13766662D-05  0.15880653D-04
  0.00000000D+00 -0.13508036D-03  0.10500124D-04 -0.11088133D-03  0.34091543D-04
  0.00000000D+00  0.00000000D+00 -0.22655598D-04 -0.38428183D-04 -0.43749128D-04
  0.74071739D-04  0.40193081D-04  0.17465295D-04  0.00000000D+00 -0.10674338D-04
 -0.18105698D-04 -0.20612697D-04 -0.24959593D-04 -0.14052215D-04 -0.36374160D-04
  0.25370035D-04 -0.10674338D-04 -0.18105698D-04 -0.20612697D-04 -0.24959593D-04
 -0.14052215D-04 -0.36374160D-04 -0.25370035D-04 -0.33472599D-04 -0.56775863D-04
 -0.64637314D-04 -0.16696241D-03  0.11821317D-04 -0.60403476D-04  0.00000000D+00
 -0.16660062D-04 -0.30663407D-04 -0.49619181D-04 -0.65225802D-04 -0.55943791D-04
 -0.19128132D-04  0.39943690D-04  0.17822797D-04 -0.52630957D-04  0.20583133D-03
  0.15858194D-03  0.69626014D-04 -0.69985298D-04 -0.53919899D-04 -0.23673740D-04
  0.00000000D+00  0.00000000D+00  0.00000000D+00 -0.67630900D-04  0.45730527D-05
 -0.55310080D-04  0.00000000D+00 -0.96734165D-04  0.51010529D-04  0.29001539D-04
  0.00000000D+00 -0.67360412D-04 -0.46301633D-04 -0.15103191D-03  0.83881258D-06
  0.00000000D+00  0.00000000D+00 -0.64411399D-04 -0.11861897D-03 -0.19165594D-03
 -0.25083643D-03 -0.21486388D-03 -0.73915665D-04  0.13852555D-04  0.68480221D-05
 -0.18064644D-04  0.45978508D-04  0.35795003D-04  0.16996734D-04 -0.71143916D-04
 -0.55386675D-04 -0.26299552D-04  0.00000000D+00  0.00000000D+00  0.00000000D+00
  0.60953258D-03 -0.99019983D-04  0.80407002D-04  0.00000000D+00  0.77304458D-03
  0.23756088D-04  0.26836669D-03  0.00000000D+00  0.20297527D-05 -0.56093293D-03
 -0.27381721D-04 -0.21008820D-03  0.00000000D+00  0.00000000D+00 -0.30330074D-05
 -0.55823527D-05 -0.90333005D-05 -0.11874526D-04 -0.10184712D-04 -0.34823261D-05
  0.11753207D-04  0.52442580D-05 -0.15486364D-04 -0.60492533D-04 -0.46606235D-04
 -0.20462648D-04  0.60807231D-04  0.46848693D-04  0.20569100D-04  0.00000000D+00
  0.00000000D+00  0.00000000D+00  0.78981831D-05  0.49099838D-04 -0.13048441D-04
  0.00000000D+00  0.57590406D-05  0.35322961D-05 -0.36895263D-05  0.00000000D+00
  0.43323760D-05 -0.22286814D-04 -0.29051489D-04 -0.46273768D-04  0.00000000D+00
  0.00000000D+00  0.10354419D-05  0.17563055D-05  0.19994917D-05  0.27078589D-04
  0.85300496D-05  0.26144067D-04 -0.29071468D-04  0.10354419D-05  0.17563055D-05
  0.19994917D-05  0.27078589D-04  0.85300496D-05  0.26144067D-04  0.29071468D-04
MO    6     MO 0.0        OCC NO =    2.0000000  ORB. ENERGY =  -10.181894
  0.81499924D-05  0.15035144D-04  0.24271385D-04  0.31594132D-04  0.26959330D-04
  0.93084087D-05  0.92878546D-04  0.42807637D-04 -0.12003708D-03 -0.26310883D-04
 -0.20173516D-04 -0.10067998D-04  0.10654987D-03  0.81695683D-04  0.40771871D-04
  0.00000000D+00  0.00000000D+00  0.00000000D+00  0.18902375D-03  0.25693487D-04
 -0.10215417D-03  0.00000000D+00  0.26409615D-03  0.32496236D-05 -0.35601430D-04
  0.00000000D+00 -0.10026855D-03 -0.72766523D-04 -0.13023834D-03  0.12312393D-04
  0.00000000D+00  0.00000000D+00 -0.94155052D-05 -0.15970479D-04 -0.18181826D-04
  0.99246991D-04  0.59593065D-04 -0.10525156D-04  0.00000000D+00 -0.12705554D-04
 -0.21551024D-04 -0.24535079D-04  0.42078528D-04 -0.29655647D-04  0.19653432D-04
 -0.22636911D-04 -0.12705554D-04 -0.21551024D-04 -0.24535079D-04  0.42078528D-04
 -0.29655647D-04  0.19653432D-04  0.22636911D-04 -0.71291066D-03 -0.13151810D-02
 -0.21231099D-02 -0.27636582D-02 -0.23582346D-02 -0.81424172D-03  0.88995298D-04
  0.41017851D-04 -0.11501834D-03 -0.72311354D-04 -0.55443760D-04 -0.27670322D-04
  0.18695839D-03  0.14334784D-03  0.71540617D-04  0.00000000D+00  0.00000000D+00
  0.00000000D+00  0.55822784D-03 -0.32136956D-03 -0.72866692D-03  0.00000000D+00
 -0.25506385D-03  0.21678651D-04 -0.31392628D-04  0.00000000D+00 -0.23715602D-03
 -0.38725403D-03 -0.77574770D-04 -0.25093290D-03  0.00000000D+00  0.00000000D+00